MODEL 1
REMARK VINA RESULT:   -13.226      0.000      0.000
REMARK INTER + INTRA:         -19.089
REMARK INTER:                 -18.638
REMARK INTRA:                  -0.451
REMARK UNBOUND:                -0.451
REMARK SMILES Cc1ccc(NC(=O)c2ccc(CN3CC[NH+](C)CC3)cc2)cc1Nc1nccc(-c2cccnc2)n1
REMARK SMILES IDX 6 1 7 2 8 3 5 5 24 6 2 7 23 8 3 9 4 10 1 11 25 12 26 14
REMARK SMILES IDX 30 15 29 16 37 17 28 18 27 19 31 20 33 21 32 22 34 23 35 24
REMARK SMILES IDX 36 25 9 26 10 27 22 28 11 29 21 30 12 31 13 32 14 33 15 34
REMARK SMILES IDX 20 35 16 36 19 37 17 38 18 39
REMARK H PARENT 6 4 25 13 17 40
ROOT
ATOM      1  N   UNL     1      16.702  51.907  14.875  1.00  0.00    -0.322 N 
ATOM      2  C   UNL     1      15.676  51.724  15.787  1.00  0.00     0.255 C 
ATOM      3  O   UNL     1      14.707  52.461  15.896  1.00  0.00    -0.269 OA
ATOM      4  H   UNL     1      17.545  51.334  15.021  1.00  0.00     0.170 HD
ENDROOT
BRANCH   1   5
ATOM      5  C   UNL     1      16.734  52.803  13.746  1.00  0.00     0.043 A 
ATOM      6  C   UNL     1      15.826  54.695  12.383  1.00  0.00     0.046 A 
ATOM      7  C   UNL     1      16.911  54.533  11.407  1.00  0.00    -0.027 A 
ATOM      8  C   UNL     1      15.748  53.848  13.517  1.00  0.00     0.052 A 
ATOM      9  C   UNL     1      17.883  53.503  11.639  1.00  0.00     0.008 A 
ATOM     10  C   UNL     1      17.789  52.651  12.799  1.00  0.00     0.026 A 
ATOM     11  C   UNL     1      17.058  55.413  10.144  1.00  0.00     0.046 C 
BRANCH   6  12
ATOM     12  N   UNL     1      14.852  55.682  12.213  1.00  0.00    -0.324 N 
ATOM     13  H   UNL     1      13.937  55.431  11.813  1.00  0.00     0.170 HD
BRANCH  12  14
ATOM     14  C   UNL     1      15.104  56.996  12.576  1.00  0.00     0.227 A 
ATOM     15  C   UNL     1      14.283  59.226  12.743  1.00  0.00     0.077 A 
ATOM     16  C   UNL     1      15.539  59.674  13.270  1.00  0.00     0.049 A 
ATOM     17  N   UNL     1      14.114  57.898  12.418  1.00  0.00    -0.213 NA
ATOM     18  C   UNL     1      16.559  58.708  13.428  1.00  0.00     0.117 A 
ATOM     19  N   UNL     1      16.328  57.395  13.080  1.00  0.00    -0.221 NA
BRANCH  15  20
ATOM     20  C   UNL     1      13.109  60.127  12.515  1.00  0.00     0.019 A 
ATOM     21  C   UNL     1      11.844  62.282  12.863  1.00  0.00     0.021 A 
ATOM     22  C   UNL     1      12.999  61.450  13.116  1.00  0.00     0.013 A 
ATOM     23  C   UNL     1      10.808  61.768  12.007  1.00  0.00     0.111 A 
ATOM     24  N   UNL     1      10.926  60.493  11.434  1.00  0.00    -0.264 NA
ATOM     25  C   UNL     1      12.026  59.671  11.657  1.00  0.00     0.121 A 
ENDBRANCH  15  20
ENDBRANCH  12  14
ENDBRANCH   6  12
ENDBRANCH   1   5
BRANCH   2  26
ATOM     26  C   UNL     1      15.742  50.561  16.725  1.00  0.00     0.040 A 
ATOM     27  C   UNL     1      16.984  49.810  16.916  1.00  0.00     0.014 A 
ATOM     28  C   UNL     1      14.547  50.172  17.443  1.00  0.00     0.014 A 
ATOM     29  C   UNL     1      17.017  48.682  17.813  1.00  0.00     0.006 A 
ATOM     30  C   UNL     1      14.583  49.067  18.322  1.00  0.00     0.006 A 
ATOM     31  C   UNL     1      15.800  48.300  18.527  1.00  0.00    -0.034 A 
BRANCH  31  32
ATOM     32  C   UNL     1      15.737  47.098  19.488  1.00  0.00     0.120 C 
BRANCH  32  33
ATOM     33  N   UNL     1      17.000  46.713  20.186  1.00  0.00    -0.288 NA
ATOM     34  C   UNL     1      17.331  47.709  21.270  1.00  0.00     0.146 C 
ATOM     35  C   UNL     1      16.925  45.301  20.773  1.00  0.00     0.146 C 
ATOM     36  C   UNL     1      18.655  47.338  21.996  1.00  0.00     0.277 C 
ATOM     37  C   UNL     1      18.262  44.906  21.480  1.00  0.00     0.277 C 
ATOM     38  N   UNL     1      18.581  45.930  22.571  1.00  0.00    -0.335 N 
ATOM     39  C   UNL     1      19.807  45.531  23.276  1.00  0.00     0.332 C 
ATOM     40  H   UNL     1      17.817  45.950  23.263  1.00  0.00     0.347 HD
ENDBRANCH  32  33
ENDBRANCH  31  32
ENDBRANCH   2  26
TORSDOF 7
ENDMDL
MODEL 2
REMARK VINA RESULT:   -11.266      1.097      1.819
REMARK INTER + INTRA:         -16.327
REMARK INTER:                 -15.656
REMARK INTRA:                  -0.671
REMARK UNBOUND:                -0.451
REMARK SMILES Cc1ccc(NC(=O)c2ccc(CN3CC[NH+](C)CC3)cc2)cc1Nc1nccc(-c2cccnc2)n1
REMARK SMILES IDX 6 1 7 2 8 3 5 5 24 6 2 7 23 8 3 9 4 10 1 11 25 12 26 14
REMARK SMILES IDX 30 15 29 16 37 17 28 18 27 19 31 20 33 21 32 22 34 23 35 24
REMARK SMILES IDX 36 25 9 26 10 27 22 28 11 29 21 30 12 31 13 32 14 33 15 34
REMARK SMILES IDX 20 35 16 36 19 37 17 38 18 39
REMARK H PARENT 6 4 25 13 17 40
ROOT
ATOM      1  N   UNL     1      16.685  52.278  14.851  1.00  0.00    -0.322 N 
ATOM      2  C   UNL     1      15.609  52.011  15.682  1.00  0.00     0.255 C 
ATOM      3  O   UNL     1      14.623  52.726  15.786  1.00  0.00    -0.269 OA
ATOM      4  H   UNL     1      17.527  51.706  15.005  1.00  0.00     0.170 HD
ENDROOT
BRANCH   1   5
ATOM      5  C   UNL     1      16.769  53.258  13.796  1.00  0.00     0.043 A 
ATOM      6  C   UNL     1      16.360  55.533  12.839  1.00  0.00     0.046 A 
ATOM      7  C   UNL     1      16.991  55.132  11.576  1.00  0.00    -0.027 A 
ATOM      8  C   UNL     1      16.256  54.614  13.914  1.00  0.00     0.052 A 
ATOM      9  C   UNL     1      17.498  53.794  11.467  1.00  0.00     0.008 A 
ATOM     10  C   UNL     1      17.385  52.872  12.570  1.00  0.00     0.026 A 
ATOM     11  C   UNL     1      17.134  56.076  10.359  1.00  0.00     0.046 C 
BRANCH   6  12
ATOM     12  N   UNL     1      15.850  56.823  13.007  1.00  0.00    -0.324 N 
ATOM     13  H   UNL     1      16.424  57.541  13.472  1.00  0.00     0.170 HD
BRANCH  12  14
ATOM     14  C   UNL     1      14.580  57.147  12.555  1.00  0.00     0.227 A 
ATOM     15  C   UNL     1      12.964  58.852  12.158  1.00  0.00     0.077 A 
ATOM     16  C   UNL     1      12.024  57.881  11.676  1.00  0.00     0.049 A 
ATOM     17  N   UNL     1      14.211  58.445  12.578  1.00  0.00    -0.213 NA
ATOM     18  C   UNL     1      12.436  56.530  11.662  1.00  0.00     0.117 A 
ATOM     19  N   UNL     1      13.697  56.186  12.099  1.00  0.00    -0.221 NA
BRANCH  15  20
ATOM     20  C   UNL     1      12.675  60.319  12.238  1.00  0.00     0.019 A 
ATOM     21  C   UNL     1      11.157  62.316  11.976  1.00  0.00     0.021 A 
ATOM     22  C   UNL     1      11.384  60.893  11.881  1.00  0.00     0.013 A 
ATOM     23  C   UNL     1      12.238  63.150  12.431  1.00  0.00     0.111 A 
ATOM     24  N   UNL     1      13.476  62.587  12.774  1.00  0.00    -0.264 NA
ATOM     25  C   UNL     1      13.724  61.220  12.693  1.00  0.00     0.121 A 
ENDBRANCH  15  20
ENDBRANCH  12  14
ENDBRANCH   6  12
ENDBRANCH   1   5
BRANCH   2  26
ATOM     26  C   UNL     1      15.639  50.781  16.531  1.00  0.00     0.040 A 
ATOM     27  C   UNL     1      14.414  50.232  17.117  1.00  0.00     0.014 A 
ATOM     28  C   UNL     1      16.909  50.134  16.781  1.00  0.00     0.014 A 
ATOM     29  C   UNL     1      14.474  49.055  17.946  1.00  0.00     0.006 A 
ATOM     30  C   UNL     1      16.964  48.979  17.593  1.00  0.00     0.006 A 
ATOM     31  C   UNL     1      15.765  48.417  18.192  1.00  0.00    -0.034 A 
BRANCH  31  32
ATOM     32  C   UNL     1      15.926  47.169  19.081  1.00  0.00     0.120 C 
BRANCH  32  33
ATOM     33  N   UNL     1      17.129  47.108  19.963  1.00  0.00    -0.288 NA
ATOM     34  C   UNL     1      17.090  48.214  20.989  1.00  0.00     0.146 C 
ATOM     35  C   UNL     1      17.264  45.750  20.657  1.00  0.00     0.146 C 
ATOM     36  C   UNL     1      18.345  48.181  21.906  1.00  0.00     0.277 C 
ATOM     37  C   UNL     1      18.540  45.697  21.559  1.00  0.00     0.277 C 
ATOM     38  N   UNL     1      18.482  46.827  22.588  1.00  0.00    -0.335 N 
ATOM     39  C   UNL     1      19.652  46.744  23.474  1.00  0.00     0.332 C 
ATOM     40  H   UNL     1      17.642  46.721  23.173  1.00  0.00     0.347 HD
ENDBRANCH  32  33
ENDBRANCH  31  32
ENDBRANCH   2  26
TORSDOF 7
ENDMDL
MODEL 3
REMARK VINA RESULT:   -11.258      3.051     12.412
REMARK INTER + INTRA:         -16.316
REMARK INTER:                 -15.348
REMARK INTRA:                  -0.968
REMARK UNBOUND:                -0.451
REMARK SMILES Cc1ccc(NC(=O)c2ccc(CN3CC[NH+](C)CC3)cc2)cc1Nc1nccc(-c2cccnc2)n1
REMARK SMILES IDX 6 1 7 2 8 3 5 5 24 6 2 7 23 8 3 9 4 10 1 11 25 12 26 14
REMARK SMILES IDX 30 15 29 16 37 17 28 18 27 19 31 20 33 21 32 22 34 23 35 24
REMARK SMILES IDX 36 25 9 26 10 27 22 28 11 29 21 30 12 31 13 32 14 33 15 34
REMARK SMILES IDX 20 35 16 36 19 37 17 38 18 39
REMARK H PARENT 6 4 25 13 17 40
ROOT
ATOM      1  N   UNL     1      16.126  51.984  15.770  1.00  0.00    -0.322 N 
ATOM      2  C   UNL     1      15.641  52.219  14.494  1.00  0.00     0.255 C 
ATOM      3  O   UNL     1      15.187  51.355  13.757  1.00  0.00    -0.269 OA
ATOM      4  H   UNL     1      16.656  52.755  16.201  1.00  0.00     0.170 HD
ENDROOT
BRANCH   1   5
ATOM      5  C   UNL     1      15.981  50.792  16.568  1.00  0.00     0.043 A 
ATOM      6  C   UNL     1      16.860  48.692  17.607  1.00  0.00     0.046 A 
ATOM      7  C   UNL     1      15.542  48.411  18.189  1.00  0.00    -0.027 A 
ATOM      8  C   UNL     1      17.064  49.854  16.819  1.00  0.00     0.052 A 
ATOM      9  C   UNL     1      14.479  49.341  17.941  1.00  0.00     0.008 A 
ATOM     10  C   UNL     1      14.704  50.518  17.138  1.00  0.00     0.026 A 
ATOM     11  C   UNL     1      15.242  47.163  19.052  1.00  0.00     0.046 C 
BRANCH   6  12
ATOM     12  N   UNL     1      17.935  47.825  17.816  1.00  0.00    -0.324 N 
ATOM     13  H   UNL     1      17.992  46.946  17.282  1.00  0.00     0.170 HD
BRANCH  12  14
ATOM     14  C   UNL     1      18.927  48.134  18.734  1.00  0.00     0.227 A 
ATOM     15  C   UNL     1      20.942  49.318  19.191  1.00  0.00     0.077 A 
ATOM     16  C   UNL     1      20.977  48.793  20.526  1.00  0.00     0.049 A 
ATOM     17  N   UNL     1      19.913  48.968  18.346  1.00  0.00    -0.213 NA
ATOM     18  C   UNL     1      19.931  47.923  20.908  1.00  0.00     0.117 A 
ATOM     19  N   UNL     1      18.930  47.609  20.013  1.00  0.00    -0.221 NA
BRANCH  15  20
ATOM     20  C   UNL     1      21.978  50.247  18.638  1.00  0.00     0.019 A 
ATOM     21  C   UNL     1      24.203  50.721  17.547  1.00  0.00     0.021 A 
ATOM     22  C   UNL     1      23.236  49.782  18.068  1.00  0.00     0.013 A 
ATOM     23  C   UNL     1      23.892  52.125  17.608  1.00  0.00     0.111 A 
ATOM     24  N   UNL     1      22.677  52.561  18.158  1.00  0.00    -0.264 NA
ATOM     25  C   UNL     1      21.727  51.680  18.666  1.00  0.00     0.121 A 
ENDBRANCH  15  20
ENDBRANCH  12  14
ENDBRANCH   6  12
ENDBRANCH   1   5
BRANCH   2  26
ATOM     26  C   UNL     1      15.677  53.611  13.952  1.00  0.00     0.040 A 
ATOM     27  C   UNL     1      16.947  54.305  13.726  1.00  0.00     0.014 A 
ATOM     28  C   UNL     1      14.429  54.282  13.658  1.00  0.00     0.014 A 
ATOM     29  C   UNL     1      16.954  55.655  13.218  1.00  0.00     0.006 A 
ATOM     30  C   UNL     1      14.439  55.604  13.160  1.00  0.00     0.006 A 
ATOM     31  C   UNL     1      15.684  56.318  12.932  1.00  0.00    -0.034 A 
BRANCH  31  32
ATOM     32  C   UNL     1      15.596  57.764  12.408  1.00  0.00     0.120 C 
BRANCH  32  33
ATOM     33  N   UNL     1      14.322  58.503  12.655  1.00  0.00    -0.288 NA
ATOM     34  C   UNL     1      14.607  59.888  13.183  1.00  0.00     0.146 C 
ATOM     35  C   UNL     1      13.454  58.589  11.397  1.00  0.00     0.146 C 
ATOM     36  C   UNL     1      13.293  60.668  13.467  1.00  0.00     0.277 C 
ATOM     37  C   UNL     1      12.116  59.346  11.679  1.00  0.00     0.277 C 
ATOM     38  N   UNL     1      12.427  60.744  12.217  1.00  0.00    -0.335 N 
ATOM     39  C   UNL     1      11.172  61.479  12.428  1.00  0.00     0.332 C 
ATOM     40  H   UNL     1      12.981  61.267  11.524  1.00  0.00     0.347 HD
ENDBRANCH  32  33
ENDBRANCH  31  32
ENDBRANCH   2  26
TORSDOF 7
ENDMDL
MODEL 4
REMARK VINA RESULT:   -11.059      3.940     12.295
REMARK INTER + INTRA:         -16.036
REMARK INTER:                 -15.168
REMARK INTRA:                  -0.868
REMARK UNBOUND:                -0.451
REMARK SMILES Cc1ccc(NC(=O)c2ccc(CN3CC[NH+](C)CC3)cc2)cc1Nc1nccc(-c2cccnc2)n1
REMARK SMILES IDX 6 1 7 2 8 3 5 5 24 6 2 7 23 8 3 9 4 10 1 11 25 12 26 14
REMARK SMILES IDX 30 15 29 16 37 17 28 18 27 19 31 20 33 21 32 22 34 23 35 24
REMARK SMILES IDX 36 25 9 26 10 27 22 28 11 29 21 30 12 31 13 32 14 33 15 34
REMARK SMILES IDX 20 35 16 36 19 37 17 38 18 39
REMARK H PARENT 6 4 25 13 17 40
ROOT
ATOM      1  N   UNL     1      16.806  50.486  16.163  1.00  0.00    -0.322 N 
ATOM      2  C   UNL     1      15.688  51.291  16.018  1.00  0.00     0.255 C 
ATOM      3  O   UNL     1      14.644  51.141  16.635  1.00  0.00    -0.269 OA
ATOM      4  H   UNL     1      17.540  50.598  15.449  1.00  0.00     0.170 HD
ENDROOT
BRANCH   1   5
ATOM      5  C   UNL     1      17.069  49.510  17.192  1.00  0.00     0.043 A 
ATOM      6  C   UNL     1      18.455  48.546  19.039  1.00  0.00     0.046 A 
ATOM      7  C   UNL     1      17.482  47.461  19.222  1.00  0.00    -0.027 A 
ATOM      8  C   UNL     1      18.245  49.538  18.047  1.00  0.00     0.052 A 
ATOM      9  C   UNL     1      16.323  47.441  18.377  1.00  0.00     0.008 A 
ATOM     10  C   UNL     1      16.125  48.458  17.375  1.00  0.00     0.026 A 
ATOM     11  C   UNL     1      17.646  46.341  20.275  1.00  0.00     0.046 C 
BRANCH   6  12
ATOM     12  N   UNL     1      19.601  48.621  19.832  1.00  0.00    -0.324 N 
ATOM     13  H   UNL     1      19.514  48.840  20.835  1.00  0.00     0.170 HD
BRANCH  12  14
ATOM     14  C   UNL     1      20.857  48.405  19.286  1.00  0.00     0.227 A 
ATOM     15  C   UNL     1      22.844  49.358  18.381  1.00  0.00     0.077 A 
ATOM     16  C   UNL     1      23.397  48.053  18.158  1.00  0.00     0.049 A 
ATOM     17  N   UNL     1      21.592  49.483  18.941  1.00  0.00    -0.213 NA
ATOM     18  C   UNL     1      22.607  46.942  18.530  1.00  0.00     0.117 A 
ATOM     19  N   UNL     1      21.359  47.133  19.082  1.00  0.00    -0.221 NA
BRANCH  15  20
ATOM     20  C   UNL     1      23.556  50.630  18.038  1.00  0.00     0.019 A 
ATOM     21  C   UNL     1      25.158  51.989  16.643  1.00  0.00     0.021 A 
ATOM     22  C   UNL     1      24.498  50.737  16.932  1.00  0.00     0.013 A 
ATOM     23  C   UNL     1      24.862  53.124  17.476  1.00  0.00     0.111 A 
ATOM     24  N   UNL     1      23.952  53.010  18.537  1.00  0.00    -0.264 NA
ATOM     25  C   UNL     1      23.301  51.818  18.839  1.00  0.00     0.121 A 
ENDBRANCH  15  20
ENDBRANCH  12  14
ENDBRANCH   6  12
ENDBRANCH   1   5
BRANCH   2  26
ATOM     26  C   UNL     1      15.731  52.417  15.036  1.00  0.00     0.040 A 
ATOM     27  C   UNL     1      16.691  52.423  13.929  1.00  0.00     0.014 A 
ATOM     28  C   UNL     1      14.812  53.523  15.197  1.00  0.00     0.014 A 
ATOM     29  C   UNL     1      16.722  53.529  13.005  1.00  0.00     0.006 A 
ATOM     30  C   UNL     1      14.845  54.605  14.289  1.00  0.00     0.006 A 
ATOM     31  C   UNL     1      15.790  54.639  13.185  1.00  0.00    -0.034 A 
BRANCH  31  32
ATOM     32  C   UNL     1      15.767  55.870  12.260  1.00  0.00     0.120 C 
BRANCH  32  33
ATOM     33  N   UNL     1      15.047  57.082  12.753  1.00  0.00    -0.288 NA
ATOM     34  C   UNL     1      15.972  58.274  12.784  1.00  0.00     0.146 C 
ATOM     35  C   UNL     1      13.810  57.399  11.907  1.00  0.00     0.146 C 
ATOM     36  C   UNL     1      15.247  59.542  13.314  1.00  0.00     0.277 C 
ATOM     37  C   UNL     1      13.056  58.656  12.449  1.00  0.00     0.277 C 
ATOM     38  N   UNL     1      14.013  59.849  12.477  1.00  0.00    -0.335 N 
ATOM     39  C   UNL     1      13.291  61.046  12.932  1.00  0.00     0.332 C 
ATOM     40  H   UNL     1      14.359  60.039  11.526  1.00  0.00     0.347 HD
ENDBRANCH  32  33
ENDBRANCH  31  32
ENDBRANCH   2  26
TORSDOF 7
ENDMDL
MODEL 5
REMARK VINA RESULT:   -10.559      2.583     12.563
REMARK INTER + INTRA:         -15.331
REMARK INTER:                 -14.543
REMARK INTRA:                  -0.787
REMARK UNBOUND:                -0.451
REMARK SMILES Cc1ccc(NC(=O)c2ccc(CN3CC[NH+](C)CC3)cc2)cc1Nc1nccc(-c2cccnc2)n1
REMARK SMILES IDX 6 1 7 2 8 3 5 5 24 6 2 7 23 8 3 9 4 10 1 11 25 12 26 14
REMARK SMILES IDX 30 15 29 16 37 17 28 18 27 19 31 20 33 21 32 22 34 23 35 24
REMARK SMILES IDX 36 25 9 26 10 27 22 28 11 29 21 30 12 31 13 32 14 33 15 34
REMARK SMILES IDX 20 35 16 36 19 37 17 38 18 39
REMARK H PARENT 6 4 25 13 17 40
ROOT
ATOM      1  N   UNL     1      14.904  51.292  16.536  1.00  0.00    -0.322 N 
ATOM      2  C   UNL     1      15.967  51.572  15.694  1.00  0.00     0.255 C 
ATOM      3  O   UNL     1      17.025  50.961  15.689  1.00  0.00    -0.269 OA
ATOM      4  H   UNL     1      14.157  52.000  16.573  1.00  0.00     0.170 HD
ENDROOT
BRANCH   1   5
ATOM      5  C   UNL     1      14.715  50.129  17.368  1.00  0.00     0.043 A 
ATOM      6  C   UNL     1      15.507  48.012  18.441  1.00  0.00     0.046 A 
ATOM      7  C   UNL     1      14.190  47.815  19.059  1.00  0.00    -0.027 A 
ATOM      8  C   UNL     1      15.753  49.141  17.619  1.00  0.00     0.052 A 
ATOM      9  C   UNL     1      13.172  48.794  18.810  1.00  0.00     0.008 A 
ATOM     10  C   UNL     1      13.439  49.937  17.973  1.00  0.00     0.026 A 
ATOM     11  C   UNL     1      13.846  46.606  19.960  1.00  0.00     0.046 C 
BRANCH   6  12
ATOM     12  N   UNL     1      16.540  47.094  18.648  1.00  0.00    -0.324 N 
ATOM     13  H   UNL     1      16.548  46.209  18.122  1.00  0.00     0.170 HD
BRANCH  12  14
ATOM     14  C   UNL     1      17.554  47.361  19.555  1.00  0.00     0.227 A 
ATOM     15  C   UNL     1      19.785  48.117  19.906  1.00  0.00     0.077 A 
ATOM     16  C   UNL     1      19.658  47.909  21.320  1.00  0.00     0.049 A 
ATOM     17  N   UNL     1      18.723  47.836  19.077  1.00  0.00    -0.213 NA
ATOM     18  C   UNL     1      18.423  47.413  21.795  1.00  0.00     0.117 A 
ATOM     19  N   UNL     1      17.399  47.148  20.912  1.00  0.00    -0.221 NA
BRANCH  15  20
ATOM     20  C   UNL     1      21.029  48.633  19.252  1.00  0.00     0.019 A 
ATOM     21  C   UNL     1      22.489  50.498  18.382  1.00  0.00     0.021 A 
ATOM     22  C   UNL     1      21.271  50.052  19.018  1.00  0.00     0.013 A 
ATOM     23  C   UNL     1      23.454  49.506  17.986  1.00  0.00     0.111 A 
ATOM     24  N   UNL     1      23.211  48.144  18.218  1.00  0.00    -0.264 NA
ATOM     25  C   UNL     1      22.049  47.685  18.829  1.00  0.00     0.121 A 
ENDBRANCH  15  20
ENDBRANCH  12  14
ENDBRANCH   6  12
ENDBRANCH   1   5
BRANCH   2  26
ATOM     26  C   UNL     1      15.842  52.705  14.726  1.00  0.00     0.040 A 
ATOM     27  C   UNL     1      16.831  52.910  13.664  1.00  0.00     0.014 A 
ATOM     28  C   UNL     1      14.726  53.617  14.855  1.00  0.00     0.014 A 
ATOM     29  C   UNL     1      16.696  54.020  12.755  1.00  0.00     0.006 A 
ATOM     30  C   UNL     1      14.596  54.703  13.961  1.00  0.00     0.006 A 
ATOM     31  C   UNL     1      15.565  54.933  12.902  1.00  0.00    -0.034 A 
BRANCH  31  32
ATOM     32  C   UNL     1      15.353  56.156  11.990  1.00  0.00     0.120 C 
BRANCH  32  33
ATOM     33  N   UNL     1      14.618  57.320  12.568  1.00  0.00    -0.288 NA
ATOM     34  C   UNL     1      15.558  58.478  12.801  1.00  0.00     0.146 C 
ATOM     35  C   UNL     1      13.451  57.761  11.680  1.00  0.00     0.146 C 
ATOM     36  C   UNL     1      14.816  59.695  13.422  1.00  0.00     0.277 C 
ATOM     37  C   UNL     1      12.679  58.966  12.311  1.00  0.00     0.277 C 
ATOM     38  N   UNL     1      13.651  60.125  12.542  1.00  0.00    -0.335 N 
ATOM     39  C   UNL     1      12.917  61.279  13.081  1.00  0.00     0.332 C 
ATOM     40  H   UNL     1      14.067  60.413  11.645  1.00  0.00     0.347 HD
ENDBRANCH  32  33
ENDBRANCH  31  32
ENDBRANCH   2  26
TORSDOF 7
ENDMDL
MODEL 6
REMARK VINA RESULT:   -10.496      1.741     13.491
REMARK INTER + INTRA:         -15.242
REMARK INTER:                 -14.381
REMARK INTRA:                  -0.861
REMARK UNBOUND:                -0.451
REMARK SMILES Cc1ccc(NC(=O)c2ccc(CN3CC[NH+](C)CC3)cc2)cc1Nc1nccc(-c2cccnc2)n1
REMARK SMILES IDX 6 1 7 2 8 3 5 5 24 6 2 7 23 8 3 9 4 10 1 11 25 12 26 14
REMARK SMILES IDX 30 15 29 16 37 17 28 18 27 19 31 20 33 21 32 22 34 23 35 24
REMARK SMILES IDX 36 25 9 26 10 27 22 28 11 29 21 30 12 31 13 32 14 33 15 34
REMARK SMILES IDX 20 35 16 36 19 37 17 38 18 39
REMARK H PARENT 6 4 25 13 17 40
ROOT
ATOM      1  N   UNL     1      16.150  51.976  15.758  1.00  0.00    -0.322 N 
ATOM      2  C   UNL     1      15.646  52.211  14.490  1.00  0.00     0.255 C 
ATOM      3  O   UNL     1      15.181  51.349  13.760  1.00  0.00    -0.269 OA
ATOM      4  H   UNL     1      16.686  52.747  16.182  1.00  0.00     0.170 HD
ENDROOT
BRANCH   1   5
ATOM      5  C   UNL     1      16.017  50.783  16.558  1.00  0.00     0.043 A 
ATOM      6  C   UNL     1      16.896  48.656  17.539  1.00  0.00     0.046 A 
ATOM      7  C   UNL     1      15.604  48.404  18.189  1.00  0.00    -0.027 A 
ATOM      8  C   UNL     1      17.087  49.816  16.747  1.00  0.00     0.052 A 
ATOM      9  C   UNL     1      14.553  49.363  18.001  1.00  0.00     0.008 A 
ATOM     10  C   UNL     1      14.765  50.538  17.193  1.00  0.00     0.026 A 
ATOM     11  C   UNL     1      15.318  47.159  19.061  1.00  0.00     0.046 C 
BRANCH   6  12
ATOM     12  N   UNL     1      17.958  47.760  17.687  1.00  0.00    -0.324 N 
ATOM     13  H   UNL     1      17.977  46.895  17.128  1.00  0.00     0.170 HD
BRANCH  12  14
ATOM     14  C   UNL     1      18.987  48.023  18.578  1.00  0.00     0.227 A 
ATOM     15  C   UNL     1      20.130  47.387  20.569  1.00  0.00     0.077 A 
ATOM     16  C   UNL     1      21.031  48.495  20.434  1.00  0.00     0.049 A 
ATOM     17  N   UNL     1      19.141  47.193  19.631  1.00  0.00    -0.213 NA
ATOM     18  C   UNL     1      20.849  49.347  19.322  1.00  0.00     0.117 A 
ATOM     19  N   UNL     1      19.838  49.101  18.419  1.00  0.00    -0.221 NA
BRANCH  15  20
ATOM     20  C   UNL     1      20.192  46.400  21.693  1.00  0.00     0.019 A 
ATOM     21  C   UNL     1      20.746  44.131  22.648  1.00  0.00     0.021 A 
ATOM     22  C   UNL     1      20.707  45.046  21.530  1.00  0.00     0.013 A 
ATOM     23  C   UNL     1      20.260  44.591  23.923  1.00  0.00     0.111 A 
ATOM     24  N   UNL     1      19.768  45.897  24.068  1.00  0.00    -0.264 NA
ATOM     25  C   UNL     1      19.720  46.800  23.010  1.00  0.00     0.121 A 
ENDBRANCH  15  20
ENDBRANCH  12  14
ENDBRANCH   6  12
ENDBRANCH   1   5
BRANCH   2  26
ATOM     26  C   UNL     1      15.674  53.604  13.949  1.00  0.00     0.040 A 
ATOM     27  C   UNL     1      16.941  54.299  13.705  1.00  0.00     0.014 A 
ATOM     28  C   UNL     1      14.422  54.275  13.674  1.00  0.00     0.014 A 
ATOM     29  C   UNL     1      16.940  55.648  13.198  1.00  0.00     0.006 A 
ATOM     30  C   UNL     1      14.425  55.598  13.177  1.00  0.00     0.006 A 
ATOM     31  C   UNL     1      15.666  56.312  12.931  1.00  0.00    -0.034 A 
BRANCH  31  32
ATOM     32  C   UNL     1      15.570  57.758  12.409  1.00  0.00     0.120 C 
BRANCH  32  33
ATOM     33  N   UNL     1      14.296  58.494  12.667  1.00  0.00    -0.288 NA
ATOM     34  C   UNL     1      14.581  59.882  13.185  1.00  0.00     0.146 C 
ATOM     35  C   UNL     1      13.414  58.570  11.417  1.00  0.00     0.146 C 
ATOM     36  C   UNL     1      13.267  60.658  13.479  1.00  0.00     0.277 C 
ATOM     37  C   UNL     1      12.076  59.323  11.710  1.00  0.00     0.277 C 
ATOM     38  N   UNL     1      12.388  60.725  12.238  1.00  0.00    -0.335 N 
ATOM     39  C   UNL     1      11.132  61.456  12.460  1.00  0.00     0.332 C 
ATOM     40  H   UNL     1      12.932  61.247  11.536  1.00  0.00     0.347 HD
ENDBRANCH  32  33
ENDBRANCH  31  32
ENDBRANCH   2  26
TORSDOF 7
ENDMDL
