MODEL 1
REMARK VINA RESULT:   -14.731      0.000      0.000
REMARK INTER + INTRA:         -17.956
REMARK INTER:                 -16.819
REMARK INTRA:                  -1.137
REMARK CONF_INDEPENDENT:        2.088
REMARK UNBOUND:                -1.137
REMARK SMILES Cc1ccc(NC(=O)c2ccc(CN3CC[NH+](C)CC3)cc2)cc1Nc1nccc(-c2cccnc2)n1
REMARK SMILES IDX 6 1 7 2 8 3 5 5 24 6 2 7 23 8 3 9 4 10 1 11 25 12 26 14
REMARK SMILES IDX 30 15 29 16 37 17 28 18 27 19 31 20 33 21 32 22 34 23 35 24
REMARK SMILES IDX 36 25 9 26 10 27 22 28 11 29 21 30 12 31 13 32 14 33 15 34
REMARK SMILES IDX 20 35 16 36 19 37 17 38 18 39
REMARK H PARENT 6 4 25 13 17 40
ROOT
ATOM      1  N   UNL     1      16.689  52.028  14.713  1.00  0.00    -0.322 N 
ATOM      2  C   UNL     1      15.679  52.008  15.661  1.00  0.00     0.255 C 
ATOM      3  O   UNL     1      14.837  52.883  15.793  1.00  0.00    -0.269 OA
ATOM      4  H   UNL     1      17.440  51.335  14.837  1.00  0.00     0.170 HD
ENDROOT
BRANCH   1   5
ATOM      5  C   UNL     1      16.816  52.902  13.573  1.00  0.00     0.043 A 
ATOM      6  C   UNL     1      16.035  54.777  12.111  1.00  0.00     0.046 A 
ATOM      7  C   UNL     1      17.189  54.585  11.224  1.00  0.00    -0.027 A 
ATOM      8  C   UNL     1      15.862  53.952  13.252  1.00  0.00     0.052 A 
ATOM      9  C   UNL     1      18.128  53.550  11.547  1.00  0.00     0.008 A 
ATOM     10  C   UNL     1      17.937  52.721  12.711  1.00  0.00     0.026 A 
ATOM     11  C   UNL     1      17.440  55.439   9.959  1.00  0.00     0.046 C 
BRANCH   6  12
ATOM     12  N   UNL     1      15.088  55.770  11.850  1.00  0.00    -0.324 N 
ATOM     13  H   UNL     1      14.274  55.555  11.257  1.00  0.00     0.170 HD
BRANCH  12  14
ATOM     14  C   UNL     1      15.232  57.043  12.381  1.00  0.00     0.227 A 
ATOM     15  C   UNL     1      14.265  59.190  12.741  1.00  0.00     0.077 A 
ATOM     16  C   UNL     1      15.452  59.639  13.409  1.00  0.00     0.049 A 
ATOM     17  N   UNL     1      14.201  57.904  12.253  1.00  0.00    -0.213 NA
ATOM     18  C   UNL     1      16.517  58.718  13.531  1.00  0.00     0.117 A 
ATOM     19  N   UNL     1      16.392  57.445  13.018  1.00  0.00    -0.221 NA
BRANCH  15  20
ATOM     20  C   UNL     1      13.056  60.047  12.531  1.00  0.00     0.019 A 
ATOM     21  C   UNL     1      11.703  62.140  12.926  1.00  0.00     0.021 A 
ATOM     22  C   UNL     1      12.890  61.351  13.162  1.00  0.00     0.013 A 
ATOM     23  C   UNL     1      10.690  61.604  12.055  1.00  0.00     0.111 A 
ATOM     24  N   UNL     1      10.861  60.349  11.452  1.00  0.00    -0.264 NA
ATOM     25  C   UNL     1      11.994  59.568  11.660  1.00  0.00     0.121 A 
ENDBRANCH  15  20
ENDBRANCH  12  14
ENDBRANCH   6  12
ENDBRANCH   1   5
BRANCH   2  26
ATOM     26  C   UNL     1      15.602  50.854  16.608  1.00  0.00     0.040 A 
ATOM     27  C   UNL     1      14.347  50.504  17.279  1.00  0.00     0.014 A 
ATOM     28  C   UNL     1      16.797  50.081  16.870  1.00  0.00     0.014 A 
ATOM     29  C   UNL     1      14.304  49.397  18.201  1.00  0.00     0.006 A 
ATOM     30  C   UNL     1      16.751  48.996  17.774  1.00  0.00     0.006 A 
ATOM     31  C   UNL     1      15.521  48.631  18.457  1.00  0.00    -0.034 A 
BRANCH  31  32
ATOM     32  C   UNL     1      15.573  47.447  19.442  1.00  0.00     0.120 C 
BRANCH  32  33
ATOM     33  N   UNL     1      16.809  47.297  20.266  1.00  0.00    -0.288 NA
ATOM     34  C   UNL     1      16.977  48.477  21.191  1.00  0.00     0.146 C 
ATOM     35  C   UNL     1      16.808  45.994  21.070  1.00  0.00     0.146 C 
ATOM     36  C   UNL     1      18.270  48.350  22.043  1.00  0.00     0.277 C 
ATOM     37  C   UNL     1      18.119  45.842  21.909  1.00  0.00     0.277 C 
ATOM     38  N   UNL     1      18.271  47.050  22.835  1.00  0.00    -0.335 N 
ATOM     39  C   UNL     1      19.472  46.883  23.667  1.00  0.00     0.332 C 
ATOM     40  H   UNL     1      17.461  47.107  23.468  1.00  0.00     0.347 HD
ENDBRANCH  32  33
ENDBRANCH  31  32
ENDBRANCH   2  26
TORSDOF 7
ENDMDL
MODEL 2
REMARK VINA RESULT:   -13.229      1.024      1.717
REMARK INTER + INTRA:         -16.492
REMARK INTER:                 -15.317
REMARK INTRA:                  -1.176
REMARK CONF_INDEPENDENT:        2.088
REMARK UNBOUND:                -1.176
REMARK SMILES Cc1ccc(NC(=O)c2ccc(CN3CC[NH+](C)CC3)cc2)cc1Nc1nccc(-c2cccnc2)n1
REMARK SMILES IDX 6 1 7 2 8 3 5 5 24 6 2 7 23 8 3 9 4 10 1 11 25 12 26 14
REMARK SMILES IDX 30 15 29 16 37 17 28 18 27 19 31 20 33 21 32 22 34 23 35 24
REMARK SMILES IDX 36 25 9 26 10 27 22 28 11 29 21 30 12 31 13 32 14 33 15 34
REMARK SMILES IDX 20 35 16 36 19 37 17 38 18 39
REMARK H PARENT 6 4 25 13 17 40
ROOT
ATOM      1  N   UNL     1      16.815  52.648  14.756  1.00  0.00    -0.322 N 
ATOM      2  C   UNL     1      15.786  52.416  15.653  1.00  0.00     0.255 C 
ATOM      3  O   UNL     1      14.814  53.144  15.793  1.00  0.00    -0.269 OA
ATOM      4  H   UNL     1      17.660  52.071  14.877  1.00  0.00     0.170 HD
ENDROOT
BRANCH   1   5
ATOM      5  C   UNL     1      16.850  53.599  13.672  1.00  0.00     0.043 A 
ATOM      6  C   UNL     1      16.338  55.827  12.654  1.00  0.00     0.046 A 
ATOM      7  C   UNL     1      16.974  55.416  11.397  1.00  0.00    -0.027 A 
ATOM      8  C   UNL     1      16.282  54.936  13.756  1.00  0.00     0.052 A 
ATOM      9  C   UNL     1      17.535  54.097  11.321  1.00  0.00     0.008 A 
ATOM     10  C   UNL     1      17.470  53.204  12.451  1.00  0.00     0.026 A 
ATOM     11  C   UNL     1      17.067  56.328  10.152  1.00  0.00     0.046 C 
BRANCH   6  12
ATOM     12  N   UNL     1      15.777  57.099  12.790  1.00  0.00    -0.324 N 
ATOM     13  H   UNL     1      16.342  57.866  13.181  1.00  0.00     0.170 HD
BRANCH  12  14
ATOM     14  C   UNL     1      14.467  57.341  12.404  1.00  0.00     0.227 A 
ATOM     15  C   UNL     1      12.745  58.945  12.039  1.00  0.00     0.077 A 
ATOM     16  C   UNL     1      11.829  57.910  11.653  1.00  0.00     0.049 A 
ATOM     17  N   UNL     1      14.033  58.618  12.398  1.00  0.00    -0.213 NA
ATOM     18  C   UNL     1      12.310  56.581  11.666  1.00  0.00     0.117 A 
ATOM     19  N   UNL     1      13.610  56.319  12.039  1.00  0.00    -0.221 NA
BRANCH  15  20
ATOM     20  C   UNL     1      12.385  60.398  12.080  1.00  0.00     0.019 A 
ATOM     21  C   UNL     1      12.925  62.824  12.512  1.00  0.00     0.021 A 
ATOM     22  C   UNL     1      13.323  61.435  12.491  1.00  0.00     0.013 A 
ATOM     23  C   UNL     1      11.580  63.154  12.119  1.00  0.00     0.111 A 
ATOM     24  N   UNL     1      10.687  62.147  11.724  1.00  0.00    -0.264 NA
ATOM     25  C   UNL     1      11.042  60.802  11.692  1.00  0.00     0.121 A 
ENDBRANCH  15  20
ENDBRANCH  12  14
ENDBRANCH   6  12
ENDBRANCH   1   5
BRANCH   2  26
ATOM     26  C   UNL     1      15.852  51.208  16.531  1.00  0.00     0.040 A 
ATOM     27  C   UNL     1      17.108  50.481  16.729  1.00  0.00     0.014 A 
ATOM     28  C   UNL     1      14.644  50.750  17.184  1.00  0.00     0.014 A 
ATOM     29  C   UNL     1      17.140  49.309  17.568  1.00  0.00     0.006 A 
ATOM     30  C   UNL     1      14.680  49.601  18.006  1.00  0.00     0.006 A 
ATOM     31  C   UNL     1      15.911  48.858  18.216  1.00  0.00    -0.034 A 
BRANCH  31  32
ATOM     32  C   UNL     1      15.848  47.605  19.110  1.00  0.00     0.120 C 
BRANCH  32  33
ATOM     33  N   UNL     1      16.999  47.364  20.031  1.00  0.00    -0.288 NA
ATOM     34  C   UNL     1      17.067  48.439  21.088  1.00  0.00     0.146 C 
ATOM     35  C   UNL     1      16.929  45.984  20.689  1.00  0.00     0.146 C 
ATOM     36  C   UNL     1      18.271  48.219  22.045  1.00  0.00     0.277 C 
ATOM     37  C   UNL     1      18.152  45.739  21.632  1.00  0.00     0.277 C 
ATOM     38  N   UNL     1      18.204  46.842  22.691  1.00  0.00    -0.335 N 
ATOM     39  C   UNL     1      19.319  46.583  23.614  1.00  0.00     0.332 C 
ATOM     40  H   UNL     1      17.335  46.833  23.244  1.00  0.00     0.347 HD
ENDBRANCH  32  33
ENDBRANCH  31  32
ENDBRANCH   2  26
TORSDOF 7
ENDMDL
MODEL 3
REMARK VINA RESULT:   -12.176      4.000      6.072
REMARK INTER + INTRA:         -15.313
REMARK INTER:                 -14.264
REMARK INTRA:                  -1.049
REMARK CONF_INDEPENDENT:        2.088
REMARK UNBOUND:                -1.049
REMARK SMILES Cc1ccc(NC(=O)c2ccc(CN3CC[NH+](C)CC3)cc2)cc1Nc1nccc(-c2cccnc2)n1
REMARK SMILES IDX 6 1 7 2 8 3 5 5 24 6 2 7 23 8 3 9 4 10 1 11 25 12 26 14
REMARK SMILES IDX 30 15 29 16 37 17 28 18 27 19 31 20 33 21 32 22 34 23 35 24
REMARK SMILES IDX 36 25 9 26 10 27 22 28 11 29 21 30 12 31 13 32 14 33 15 34
REMARK SMILES IDX 20 35 16 36 19 37 17 38 18 39
REMARK H PARENT 6 4 25 13 17 40
ROOT
ATOM      1  N   UNL     1      16.781  52.867  14.921  1.00  0.00    -0.322 N 
ATOM      2  C   UNL     1      15.450  52.651  15.238  1.00  0.00     0.255 C 
ATOM      3  O   UNL     1      14.718  53.483  15.755  1.00  0.00    -0.269 OA
ATOM      4  H   UNL     1      17.329  52.031  14.676  1.00  0.00     0.170 HD
ENDROOT
BRANCH   1   5
ATOM      5  C   UNL     1      17.493  54.121  14.893  1.00  0.00     0.043 A 
ATOM      6  C   UNL     1      17.685  56.556  14.352  1.00  0.00     0.046 A 
ATOM      7  C   UNL     1      19.053  56.582  14.883  1.00  0.00    -0.027 A 
ATOM      8  C   UNL     1      16.933  55.353  14.361  1.00  0.00     0.052 A 
ATOM      9  C   UNL     1      19.599  55.364  15.409  1.00  0.00     0.008 A 
ATOM     10  C   UNL     1      18.821  54.150  15.411  1.00  0.00     0.026 A 
ATOM     11  C   UNL     1      19.935  57.852  14.900  1.00  0.00     0.046 C 
BRANCH   6  12
ATOM     12  N   UNL     1      17.098  57.711  13.828  1.00  0.00    -0.324 N 
ATOM     13  H   UNL     1      17.489  58.634  14.066  1.00  0.00     0.170 HD
BRANCH  12  14
ATOM     14  C   UNL     1      15.994  57.629  12.994  1.00  0.00     0.227 A 
ATOM     15  C   UNL     1      13.928  58.588  12.297  1.00  0.00     0.077 A 
ATOM     16  C   UNL     1      13.725  57.525  11.355  1.00  0.00     0.049 A 
ATOM     17  N   UNL     1      15.060  58.599  13.080  1.00  0.00    -0.213 NA
ATOM     18  C   UNL     1      14.718  56.523  11.283  1.00  0.00     0.117 A 
ATOM     19  N   UNL     1      15.828  56.589  12.098  1.00  0.00    -0.221 NA
BRANCH  15  20
ATOM     20  C   UNL     1      12.966  59.719  12.492  1.00  0.00     0.019 A 
ATOM     21  C   UNL     1      12.330  61.979  13.413  1.00  0.00     0.021 A 
ATOM     22  C   UNL     1      13.295  60.916  13.255  1.00  0.00     0.013 A 
ATOM     23  C   UNL     1      11.037  61.824  12.800  1.00  0.00     0.111 A 
ATOM     24  N   UNL     1      10.732  60.668  12.066  1.00  0.00    -0.264 NA
ATOM     25  C   UNL     1      11.642  59.628  11.896  1.00  0.00     0.121 A 
ENDBRANCH  15  20
ENDBRANCH  12  14
ENDBRANCH   6  12
ENDBRANCH   1   5
BRANCH   2  26
ATOM     26  C   UNL     1      14.847  51.313  14.952  1.00  0.00     0.040 A 
ATOM     27  C   UNL     1      14.648  50.327  16.016  1.00  0.00     0.014 A 
ATOM     28  C   UNL     1      14.468  50.992  13.593  1.00  0.00     0.014 A 
ATOM     29  C   UNL     1      14.080  49.037  15.710  1.00  0.00     0.006 A 
ATOM     30  C   UNL     1      13.911  49.728  13.297  1.00  0.00     0.006 A 
ATOM     31  C   UNL     1      13.707  48.728  14.332  1.00  0.00    -0.034 A 
BRANCH  31  32
ATOM     32  C   UNL     1      13.115  47.370  13.911  1.00  0.00     0.120 C 
BRANCH  32  33
ATOM     33  N   UNL     1      11.848  47.393  13.120  1.00  0.00    -0.288 NA
ATOM     34  C   UNL     1      11.902  46.381  12.002  1.00  0.00     0.146 C 
ATOM     35  C   UNL     1      10.619  47.142  13.998  1.00  0.00     0.146 C 
ATOM     36  C   UNL     1      10.600  46.402  11.154  1.00  0.00     0.277 C 
ATOM     37  C   UNL     1       9.300  47.191  13.159  1.00  0.00     0.277 C 
ATOM     38  N   UNL     1       9.379  46.162  12.031  1.00  0.00    -0.335 N 
ATOM     39  C   UNL     1       8.117  46.165  11.275  1.00  0.00     0.332 C 
ATOM     40  H   UNL     1       9.499  45.219  12.428  1.00  0.00     0.347 HD
ENDBRANCH  32  33
ENDBRANCH  31  32
ENDBRANCH   2  26
TORSDOF 7
ENDMDL
MODEL 4
REMARK VINA RESULT:   -11.891      1.430      2.088
REMARK INTER + INTRA:         -14.915
REMARK INTER:                 -13.979
REMARK INTRA:                  -0.936
REMARK CONF_INDEPENDENT:        2.088
REMARK UNBOUND:                -0.936
REMARK SMILES Cc1ccc(NC(=O)c2ccc(CN3CC[NH+](C)CC3)cc2)cc1Nc1nccc(-c2cccnc2)n1
REMARK SMILES IDX 6 1 7 2 8 3 5 5 24 6 2 7 23 8 3 9 4 10 1 11 25 12 26 14
REMARK SMILES IDX 30 15 29 16 37 17 28 18 27 19 31 20 33 21 32 22 34 23 35 24
REMARK SMILES IDX 36 25 9 26 10 27 22 28 11 29 21 30 12 31 13 32 14 33 15 34
REMARK SMILES IDX 20 35 16 36 19 37 17 38 18 39
REMARK H PARENT 6 4 25 13 17 40
ROOT
ATOM      1  N   UNL     1      15.384  51.974  14.377  1.00  0.00    -0.322 N 
ATOM      2  C   UNL     1      16.072  51.653  15.536  1.00  0.00     0.255 C 
ATOM      3  O   UNL     1      17.215  52.009  15.783  1.00  0.00    -0.269 OA
ATOM      4  H   UNL     1      14.513  51.451  14.209  1.00  0.00     0.170 HD
ENDROOT
BRANCH   1   5
ATOM      5  C   UNL     1      15.740  52.950  13.377  1.00  0.00     0.043 A 
ATOM      6  C   UNL     1      15.324  55.040  12.066  1.00  0.00     0.046 A 
ATOM      7  C   UNL     1      16.570  54.836  11.317  1.00  0.00    -0.027 A 
ATOM      8  C   UNL     1      14.928  54.117  13.067  1.00  0.00     0.052 A 
ATOM      9  C   UNL     1      17.368  53.685  11.629  1.00  0.00     0.008 A 
ATOM     10  C   UNL     1      16.950  52.757  12.651  1.00  0.00     0.026 A 
ATOM     11  C   UNL     1      17.063  55.795  10.208  1.00  0.00     0.046 C 
BRANCH   6  12
ATOM     12  N   UNL     1      14.507  56.143  11.808  1.00  0.00    -0.324 N 
ATOM     13  H   UNL     1      13.680  56.035  11.203  1.00  0.00     0.170 HD
BRANCH  12  14
ATOM     14  C   UNL     1      14.796  57.383  12.358  1.00  0.00     0.227 A 
ATOM     15  C   UNL     1      14.102  59.635  12.710  1.00  0.00     0.077 A 
ATOM     16  C   UNL     1      15.313  59.921  13.424  1.00  0.00     0.049 A 
ATOM     17  N   UNL     1      13.890  58.371  12.205  1.00  0.00    -0.213 NA
ATOM     18  C   UNL     1      16.244  58.868  13.571  1.00  0.00     0.117 A 
ATOM     19  N   UNL     1      15.974  57.626  13.040  1.00  0.00    -0.221 NA
BRANCH  15  20
ATOM     20  C   UNL     1      13.023  60.644  12.469  1.00  0.00     0.019 A 
ATOM     21  C   UNL     1      10.690  61.298  11.765  1.00  0.00     0.021 A 
ATOM     22  C   UNL     1      11.697  60.284  11.981  1.00  0.00     0.013 A 
ATOM     23  C   UNL     1      11.031  62.668  12.042  1.00  0.00     0.111 A 
ATOM     24  N   UNL     1      12.310  63.002  12.512  1.00  0.00    -0.264 NA
ATOM     25  C   UNL     1      13.299  62.048  12.731  1.00  0.00     0.121 A 
ENDBRANCH  15  20
ENDBRANCH  12  14
ENDBRANCH   6  12
ENDBRANCH   1   5
BRANCH   2  26
ATOM     26  C   UNL     1      15.398  50.801  16.563  1.00  0.00     0.040 A 
ATOM     27  C   UNL     1      16.133  49.764  17.291  1.00  0.00     0.014 A 
ATOM     28  C   UNL     1      13.990  51.006  16.828  1.00  0.00     0.014 A 
ATOM     29  C   UNL     1      15.455  48.945  18.265  1.00  0.00     0.006 A 
ATOM     30  C   UNL     1      13.329  50.202  17.784  1.00  0.00     0.006 A 
ATOM     31  C   UNL     1      14.032  49.162  18.517  1.00  0.00    -0.034 A 
BRANCH  31  32
ATOM     32  C   UNL     1      13.223  48.322  19.522  1.00  0.00     0.120 C 
BRANCH  32  33
ATOM     33  N   UNL     1      13.977  47.334  20.351  1.00  0.00    -0.288 NA
ATOM     34  C   UNL     1      14.305  46.103  19.542  1.00  0.00     0.146 C 
ATOM     35  C   UNL     1      15.258  47.935  20.937  1.00  0.00     0.146 C 
ATOM     36  C   UNL     1      15.072  45.053  20.393  1.00  0.00     0.277 C 
ATOM     37  C   UNL     1      16.023  46.896  21.819  1.00  0.00     0.277 C 
ATOM     38  N   UNL     1      16.340  45.656  20.982  1.00  0.00    -0.335 N 
ATOM     39  C   UNL     1      17.110  44.700  21.792  1.00  0.00     0.332 C 
ATOM     40  H   UNL     1      16.925  45.921  20.176  1.00  0.00     0.347 HD
ENDBRANCH  32  33
ENDBRANCH  31  32
ENDBRANCH   2  26
TORSDOF 7
ENDMDL
MODEL 5
REMARK VINA RESULT:   -11.794      1.354      2.052
REMARK INTER + INTRA:         -15.015
REMARK INTER:                 -13.882
REMARK INTRA:                  -1.133
REMARK CONF_INDEPENDENT:        2.088
REMARK UNBOUND:                -1.133
REMARK SMILES Cc1ccc(NC(=O)c2ccc(CN3CC[NH+](C)CC3)cc2)cc1Nc1nccc(-c2cccnc2)n1
REMARK SMILES IDX 6 1 7 2 8 3 5 5 24 6 2 7 23 8 3 9 4 10 1 11 25 12 26 14
REMARK SMILES IDX 30 15 29 16 37 17 28 18 27 19 31 20 33 21 32 22 34 23 35 24
REMARK SMILES IDX 36 25 9 26 10 27 22 28 11 29 21 30 12 31 13 32 14 33 15 34
REMARK SMILES IDX 20 35 16 36 19 37 17 38 18 39
REMARK H PARENT 6 4 25 13 17 40
ROOT
ATOM      1  N   UNL     1      16.039  52.513  15.503  1.00  0.00    -0.322 N 
ATOM      2  C   UNL     1      15.244  51.378  15.517  1.00  0.00     0.255 C 
ATOM      3  O   UNL     1      14.504  51.041  14.605  1.00  0.00    -0.269 OA
ATOM      4  H   UNL     1      16.458  52.783  16.404  1.00  0.00     0.170 HD
ENDROOT
BRANCH   1   5
ATOM      5  C   UNL     1      16.351  53.363  14.380  1.00  0.00     0.043 A 
ATOM      6  C   UNL     1      16.243  55.532  13.138  1.00  0.00     0.046 A 
ATOM      7  C   UNL     1      17.039  54.962  12.044  1.00  0.00    -0.027 A 
ATOM      8  C   UNL     1      15.913  54.746  14.271  1.00  0.00     0.052 A 
ATOM      9  C   UNL     1      17.470  53.598  12.158  1.00  0.00     0.008 A 
ATOM     10  C   UNL     1      17.126  52.813  13.317  1.00  0.00     0.026 A 
ATOM     11  C   UNL     1      17.431  55.755  10.775  1.00  0.00     0.046 C 
BRANCH   6  12
ATOM     12  N   UNL     1      15.797  56.855  13.085  1.00  0.00    -0.324 N 
ATOM     13  H   UNL     1      16.414  57.614  13.407  1.00  0.00     0.170 HD
BRANCH  12  14
ATOM     14  C   UNL     1      14.532  57.157  12.604  1.00  0.00     0.227 A 
ATOM     15  C   UNL     1      12.901  58.835  12.161  1.00  0.00     0.077 A 
ATOM     16  C   UNL     1      11.985  57.848  11.666  1.00  0.00     0.049 A 
ATOM     17  N   UNL     1      14.144  58.449  12.611  1.00  0.00    -0.213 NA
ATOM     18  C   UNL     1      12.417  56.503  11.669  1.00  0.00     0.117 A 
ATOM     19  N   UNL     1      13.673  56.180  12.135  1.00  0.00    -0.221 NA
BRANCH  15  20
ATOM     20  C   UNL     1      12.589  60.298  12.225  1.00  0.00     0.019 A 
ATOM     21  C   UNL     1      11.077  62.281  11.842  1.00  0.00     0.021 A 
ATOM     22  C   UNL     1      11.328  60.861  11.757  1.00  0.00     0.013 A 
ATOM     23  C   UNL     1      12.103  63.123  12.398  1.00  0.00     0.111 A 
ATOM     24  N   UNL     1      13.312  62.570  12.847  1.00  0.00    -0.264 NA
ATOM     25  C   UNL     1      13.581  61.207  12.779  1.00  0.00     0.121 A 
ENDBRANCH  15  20
ENDBRANCH  12  14
ENDBRANCH   6  12
ENDBRANCH   1   5
BRANCH   2  26
ATOM     26  C   UNL     1      15.264  50.498  16.725  1.00  0.00     0.040 A 
ATOM     27  C   UNL     1      16.524  49.994  17.278  1.00  0.00     0.014 A 
ATOM     28  C   UNL     1      14.009  50.134  17.347  1.00  0.00     0.014 A 
ATOM     29  C   UNL     1      16.513  49.133  18.434  1.00  0.00     0.006 A 
ATOM     30  C   UNL     1      14.003  49.290  18.480  1.00  0.00     0.006 A 
ATOM     31  C   UNL     1      15.237  48.772  19.046  1.00  0.00    -0.034 A 
BRANCH  31  32
ATOM     32  C   UNL     1      15.130  47.842  20.269  1.00  0.00     0.120 C 
BRANCH  32  33
ATOM     33  N   UNL     1      16.259  46.895  20.509  1.00  0.00    -0.288 NA
ATOM     34  C   UNL     1      17.226  47.468  21.516  1.00  0.00     0.146 C 
ATOM     35  C   UNL     1      15.769  45.521  20.973  1.00  0.00     0.146 C 
ATOM     36  C   UNL     1      18.422  46.506  21.765  1.00  0.00     0.277 C 
ATOM     37  C   UNL     1      16.962  44.536  21.198  1.00  0.00     0.277 C 
ATOM     38  N   UNL     1      17.931  45.138  22.217  1.00  0.00    -0.335 N 
ATOM     39  C   UNL     1      19.024  44.189  22.474  1.00  0.00     0.332 C 
ATOM     40  H   UNL     1      17.441  45.296  23.110  1.00  0.00     0.347 HD
ENDBRANCH  32  33
ENDBRANCH  31  32
ENDBRANCH   2  26
TORSDOF 7
ENDMDL
MODEL 6
REMARK VINA RESULT:   -11.788      4.913     11.366
REMARK INTER + INTRA:         -14.979
REMARK INTER:                 -13.876
REMARK INTRA:                  -1.103
REMARK CONF_INDEPENDENT:        2.088
REMARK UNBOUND:                -1.103
REMARK SMILES Cc1ccc(NC(=O)c2ccc(CN3CC[NH+](C)CC3)cc2)cc1Nc1nccc(-c2cccnc2)n1
REMARK SMILES IDX 6 1 7 2 8 3 5 5 24 6 2 7 23 8 3 9 4 10 1 11 25 12 26 14
REMARK SMILES IDX 30 15 29 16 37 17 28 18 27 19 31 20 33 21 32 22 34 23 35 24
REMARK SMILES IDX 36 25 9 26 10 27 22 28 11 29 21 30 12 31 13 32 14 33 15 34
REMARK SMILES IDX 20 35 16 36 19 37 17 38 18 39
REMARK H PARENT 6 4 25 13 17 40
ROOT
ATOM      1  N   UNL     1      14.750  51.818  16.168  1.00  0.00    -0.322 N 
ATOM      2  C   UNL     1      15.979  51.801  15.529  1.00  0.00     0.255 C 
ATOM      3  O   UNL     1      16.802  50.904  15.640  1.00  0.00    -0.269 OA
ATOM      4  H   UNL     1      14.242  52.714  16.147  1.00  0.00     0.170 HD
ENDROOT
BRANCH   1   5
ATOM      5  C   UNL     1      14.094  50.736  16.858  1.00  0.00     0.043 A 
ATOM      6  C   UNL     1      12.505  48.805  16.963  1.00  0.00     0.046 A 
ATOM      7  C   UNL     1      12.830  48.596  18.380  1.00  0.00    -0.027 A 
ATOM      8  C   UNL     1      13.126  49.850  16.231  1.00  0.00     0.052 A 
ATOM      9  C   UNL     1      13.788  49.471  18.992  1.00  0.00     0.008 A 
ATOM     10  C   UNL     1      14.410  50.527  18.233  1.00  0.00     0.026 A 
ATOM     11  C   UNL     1      12.190  47.484  19.244  1.00  0.00     0.046 C 
BRANCH   6  12
ATOM     12  N   UNL     1      11.583  47.984  16.311  1.00  0.00    -0.324 N 
ATOM     13  H   UNL     1      10.764  47.629  16.826  1.00  0.00     0.170 HD
BRANCH  12  14
ATOM     14  C   UNL     1      11.757  47.641  14.979  1.00  0.00     0.227 A 
ATOM     15  C   UNL     1      10.738  47.076  12.902  1.00  0.00     0.077 A 
ATOM     16  C   UNL     1      12.024  46.927  12.284  1.00  0.00     0.049 A 
ATOM     17  N   UNL     1      10.655  47.431  14.230  1.00  0.00    -0.213 NA
ATOM     18  C   UNL     1      13.161  47.155  13.091  1.00  0.00     0.117 A 
ATOM     19  N   UNL     1      13.012  47.504  14.415  1.00  0.00    -0.221 NA
BRANCH  15  20
ATOM     20  C   UNL     1       9.442  46.866  12.181  1.00  0.00     0.019 A 
ATOM     21  C   UNL     1       8.078  46.028  10.231  1.00  0.00     0.021 A 
ATOM     22  C   UNL     1       9.355  46.206  10.885  1.00  0.00     0.013 A 
ATOM     23  C   UNL     1       6.899  46.521  10.893  1.00  0.00     0.111 A 
ATOM     24  N   UNL     1       6.995  47.153  12.142  1.00  0.00    -0.264 NA
ATOM     25  C   UNL     1       8.210  47.337  12.795  1.00  0.00     0.121 A 
ENDBRANCH  15  20
ENDBRANCH  12  14
ENDBRANCH   6  12
ENDBRANCH   1   5
BRANCH   2  26
ATOM     26  C   UNL     1      16.355  52.952  14.653  1.00  0.00     0.040 A 
ATOM     27  C   UNL     1      17.460  53.847  15.006  1.00  0.00     0.014 A 
ATOM     28  C   UNL     1      15.598  53.186  13.442  1.00  0.00     0.014 A 
ATOM     29  C   UNL     1      17.790  54.960  14.152  1.00  0.00     0.006 A 
ATOM     30  C   UNL     1      15.925  54.278  12.606  1.00  0.00     0.006 A 
ATOM     31  C   UNL     1      17.014  55.184  12.935  1.00  0.00    -0.034 A 
BRANCH  31  32
ATOM     32  C   UNL     1      17.282  56.358  11.975  1.00  0.00     0.120 C 
BRANCH  32  33
ATOM     33  N   UNL     1      16.416  57.567  12.116  1.00  0.00    -0.288 NA
ATOM     34  C   UNL     1      14.966  57.209  11.902  1.00  0.00     0.146 C 
ATOM     35  C   UNL     1      16.595  58.247  13.476  1.00  0.00     0.146 C 
ATOM     36  C   UNL     1      14.049  58.458  12.023  1.00  0.00     0.277 C 
ATOM     37  C   UNL     1      15.699  59.523  13.597  1.00  0.00     0.277 C 
ATOM     38  N   UNL     1      14.235  59.137  13.372  1.00  0.00    -0.335 N 
ATOM     39  C   UNL     1      13.384  60.324  13.543  1.00  0.00     0.332 C 
ATOM     40  H   UNL     1      13.947  58.444  14.078  1.00  0.00     0.347 HD
ENDBRANCH  32  33
ENDBRANCH  31  32
ENDBRANCH   2  26
TORSDOF 7
ENDMDL
